 Gaussian 16, Revision C.01,
 Gaussian 16:  ES64L-G16RevC.01  3-Jul-2019

 ----------------------------
 #p int=acc2e=12 wb97xd/6-31g
 ----------------------------

 --------------
 Atom number=14
 --------------
 Symbolic Z-matrix:
 Charge =  2 Multiplicity = 1

                         Standard orientation:
 ---------------------------------------------------------------------
 Center     Atomic      Atomic             Coordinates (Angstroms)
 Number     Number       Type             X           Y           Z
 ---------------------------------------------------------------------
      1          6           0       -2.444624   -0.865989    0.274745
      2          8           0       -2.696251   -0.952553   -0.910269
      3          7           0       -1.393952   -0.236906    0.746840
      4          6           0       -0.455374    0.375169   -0.114439
      5          6           0        0.933487   -0.102706    0.268210
      6          8           0        1.338096    0.090426    1.365192
      7          7           0        1.662373   -0.680571   -0.660118
      8          6           0        2.977040   -1.211587   -0.362330
      9          6           0       -0.497886    1.894136    0.057731
     10          6           0        0.640290    2.515647   -0.727276
     11          1           0       -3.048074   -1.341395    1.019552
     12          1           0       -1.440386    2.287711   -0.261159
     13          1           0        3.671334   -0.984256   -1.144107
     14          1           0        2.885815   -2.270716   -0.240571
 ---------------------------------------------------------------------

 SCF Done:  E(RwB97XD) =  -489.297616141     A.U. after   45 cycles

 The electronic state is 1-A.
 Alpha  occ. eigenvalues --  -19.72500 -19.70290 -14.99037 -14.88520 -10.88378
 Alpha  occ. eigenvalues --  -10.87774 -10.83861 -10.81198 -10.77962 -10.77094
 Alpha  occ. eigenvalues --   -1.63542  -1.62476  -1.50079  -1.42102  -1.34573
 Alpha  occ. eigenvalues --   -1.24811  -1.19953  -1.10849  -1.07040  -1.01351
 Alpha  occ. eigenvalues --   -0.98614  -0.96540  -0.95708  -0.94789  -0.93637
 Alpha  occ. eigenvalues --   -0.92129  -0.89118  -0.87685  -0.82420  -0.80562
 Alpha  occ. eigenvalues --   -0.78297  -0.77004  -0.74012  -0.71951
 Alpha virt. eigenvalues --   -0.57738  -0.49514  -0.45386  -0.43030  -0.37698
 Alpha virt. eigenvalues --   -0.31295  -0.28863  -0.13417  -0.12409  -0.12121
 Alpha virt. eigenvalues --   -0.09651  -0.08764  -0.07339  -0.05925  -0.05291

 Mulliken charges:
               1
     1  C    0.273902
     2  O   -0.108625
     3  N   -0.051097
     4  C    0.159738
     5  C    0.377165
     6  O   -0.133326
     7  N   -0.317458
     8  C    0.070614
     9  C   -0.181049
    10  C    0.525131
    11  H    0.355121
    12  H    0.358319
    13  H    0.338020
    14  H    0.333544
 Sum of Mulliken charges =   2.00000

 Dipole moment (field-independent basis, Debye):
    X=              1.4122    Y=              0.9939    Z=             -1.2115  Tot=              2.1094
 Quadrupole moment (field-independent basis, Debye-Ang):
   XX=             -1.3794   YY=            -23.5085   ZZ=            -53.4874
   XY=            -10.9849   XZ=            -10.2681   YZ=             -4.2297

 Normal termination of Gaussian 16 at Wed Jan  5 16:37:04 2022.
