 Gaussian 16, Revision C.01,
 Gaussian 16:  ES64L-G16RevC.01  3-Jul-2019

 ----------------------------
 #p int=acc2e=12 wb97xd/6-31g
 ----------------------------

 --------------
 Atom number=23
 --------------
 Symbolic Z-matrix:
 Charge =  4 Multiplicity = 1

                         Standard orientation:
 ---------------------------------------------------------------------
 Center     Atomic      Atomic             Coordinates (Angstroms)
 Number     Number       Type             X           Y           Z
 ---------------------------------------------------------------------
      1          6           0        4.273219   -1.933310    0.477933
      2          8           0        4.453652   -1.547308    1.615261
      3          7           0        3.644742   -1.228726   -0.433718
      4          6           0        3.106550    0.043969   -0.137131
      5          6           0        1.656864    0.070986   -0.585911
      6          8           0        1.391943   -0.126944   -1.723900
      7          7           0        0.741093    0.362724    0.310331
      8          6           0       -0.668349    0.357477   -0.025006
      9          6           0        3.861920    1.126119   -0.909836
     10          6           0        3.152311    2.453403   -0.728930
     11          6           0       -1.377886    1.530388    0.594340
     12          8           0       -1.445786    1.651760    1.816007
     13          7           0       -1.917446    2.390899   -0.249122
     14          6           0       -2.620056    3.558700    0.229171
     15          6           0       -1.276490   -0.972627    0.485165
     16          6           0       -2.679959   -1.232630    0.066193
     17          7           0       -3.252457   -2.475234    0.189791
     18          6           0       -3.607025   -0.451862   -0.509027
     19          6           0       -4.488651   -2.435833   -0.270167
     20          7           0       -4.732904   -1.209842   -0.679637
     21          1           0        4.580618   -2.905226    0.152686
     22          1           0        4.878418    1.189543   -0.581798
     23          1           0       -2.033395    4.328198    0.685901
 ---------------------------------------------------------------------

 SCF Done:  E(RwB97XD) =  -954.567767385     A.U. after   54 cycles

 The electronic state is 1-A.
 Alpha  occ. eigenvalues --  -19.91611 -19.90149 -19.85877 -15.17340 -15.16321
 Alpha  occ. eigenvalues --  -15.14127 -15.10454 -15.07547 -11.10908 -11.07674
 Alpha  occ. eigenvalues --  -11.05731 -11.04884 -11.04545 -11.03883 -11.01865
 Alpha  occ. eigenvalues --  -11.01333 -11.00170 -11.00086 -10.98497 -10.94134
 Alpha  occ. eigenvalues --   -1.81199  -1.80773  -1.79706  -1.79152  -1.67451
 Alpha  occ. eigenvalues --   -1.67222  -1.62076  -1.59214  -1.52660  -1.51290
 Alpha  occ. eigenvalues --   -1.47643  -1.42592  -1.40976  -1.35877  -1.30053
 Alpha  occ. eigenvalues --   -1.28105  -1.27475  -1.24702  -1.23691  -1.21294
 Alpha  occ. eigenvalues --   -1.17818  -1.17297  -1.15344  -1.14818  -1.14263
 Alpha  occ. eigenvalues --   -1.13928  -1.12389  -1.11336  -1.09697  -1.08230
 Alpha  occ. eigenvalues --   -1.06698  -1.05505  -1.04463  -1.03213  -1.01199
 Alpha  occ. eigenvalues --   -0.98177  -0.97664  -0.97073  -0.96056  -0.95109
 Alpha  occ. eigenvalues --   -0.94696  -0.94438  -0.91928  -0.90916  -0.89683
 Alpha virt. eigenvalues --   -0.74717  -0.74197  -0.72109  -0.71356  -0.67466
 Alpha virt. eigenvalues --   -0.65983  -0.65493  -0.62235  -0.59851  -0.54370
 Alpha virt. eigenvalues --   -0.51592  -0.48756  -0.48030  -0.46204  -0.43488

 Mulliken charges:
               1
     1  C    0.304357
     2  O   -0.031889
     3  N   -0.040319
     4  C    0.146816
     5  C    0.391295
     6  O   -0.162713
     7  N   -0.272849
     8  C    0.137857
     9  C   -0.149130
    10  C    0.546322
    11  C    0.331550
    12  O   -0.121879
    13  N   -0.224621
    14  C    0.532834
    15  C    0.499251
    16  C   -0.040603
    17  N   -0.196427
    18  C    0.517843
    19  C    0.821673
    20  N   -0.213073
    21  H    0.400841
    22  H    0.389202
    23  H    0.433665
 Sum of Mulliken charges =   4.00000

 Dipole moment (field-independent basis, Debye):
    X=             -2.2420    Y=              6.6648    Z=             -1.4777  Tot=              7.1854
 Quadrupole moment (field-independent basis, Debye-Ang):
   XX=            149.6813   YY=             12.7081   ZZ=           -103.5573
   XY=             -4.6112   XZ=             -1.6744   YZ=              1.5169

 Normal termination of Gaussian 16 at Wed Jan  5 16:39:32 2022.
