 Gaussian 16, Revision C.01,
 Gaussian 16:  ES64L-G16RevC.01  3-Jul-2019

 ----------------------------
 #p int=acc2e=12 wb97xd/6-31g
 ----------------------------

 --------------
 Atom number=23
 --------------
 Symbolic Z-matrix:
 Charge =  6 Multiplicity = 1

                         Standard orientation:
 ---------------------------------------------------------------------
 Center     Atomic      Atomic             Coordinates (Angstroms)
 Number     Number       Type             X           Y           Z
 ---------------------------------------------------------------------
      1          6           0       -4.920102    1.122379    0.280337
      2          8           0       -5.082312    0.932772    1.434489
      3          7           0       -3.986496    0.523208   -0.470347
      4          6           0       -2.994993   -0.408725    0.032371
      5          6           0       -1.666772   -0.030397   -0.567415
      6          8           0       -1.481059   -0.136600   -1.772177
      7          7           0       -0.773262    0.483622    0.254856
      8          6           0        0.529582    0.909539   -0.193932
      9          6           0        1.598928    0.042223    0.485870
     10          8           0        1.571753   -0.082448    1.709557
     11          7           0        2.487805   -0.581362   -0.318564
     12          6           0        3.660919   -1.286156    0.223726
     13          6           0       -3.320242   -1.822570   -0.425082
     14          8           0       -4.669141   -2.158183   -0.053105
     15          6           0       -2.415508   -2.759936    0.209146
     16          6           0        0.763903    2.400457    0.125152
     17          6           0        2.181448    2.766914   -0.147153
     18          6           0       -0.160934    3.268926   -0.719095
     19          6           0        4.899322   -0.405002    0.051327
     20          8           0        5.053173    0.305171   -0.942556
     21          8           0        5.783869   -0.314845    0.907499
     22          6           0        3.850531   -2.662286   -0.409195
     23          1           0       -5.543087    1.842593   -0.207599
 ---------------------------------------------------------------------

 SCF Done:  E(RwB97XD) =  -1105.36699883     A.U. after   54 cycles

 The electronic state is 1-A.
 Alpha  occ. eigenvalues --  -20.26786 -20.24751 -20.24394 -20.23815 -20.18246
 Alpha  occ. eigenvalues --  -20.17443 -15.45380 -15.43346 -15.36864 -11.41109
 Alpha  occ. eigenvalues --  -11.39769 -11.36561 -11.35107 -11.34456 -11.34322
 Alpha  occ. eigenvalues --  -11.33420 -11.32354 -11.31624 -11.31344 -11.30799
 Alpha  occ. eigenvalues --  -11.28356 -11.23043  -2.15859  -2.12587  -2.08402
 Alpha  occ. eigenvalues --   -2.07047  -2.03032  -2.00583  -1.94303  -1.93060
 Alpha  occ. eigenvalues --   -1.91599  -1.82898  -1.80451  -1.79065  -1.72832
 Alpha  occ. eigenvalues --   -1.69702  -1.62324  -1.61103  -1.58299  -1.56262
 Alpha  occ. eigenvalues --   -1.54490  -1.48873  -1.48449  -1.47049  -1.45812
 Alpha  occ. eigenvalues --   -1.43514  -1.43135  -1.41668  -1.41337  -1.40892
 Alpha  occ. eigenvalues --   -1.40630  -1.39412  -1.38336  -1.37936  -1.35224
 Alpha  occ. eigenvalues --   -1.34622  -1.33019  -1.29801  -1.29372  -1.28798
 Alpha  occ. eigenvalues --   -1.28338  -1.27282  -1.26750  -1.25728  -1.24811
 Alpha  occ. eigenvalues --   -1.23842  -1.23136  -1.22255  -1.21780  -1.21202
 Alpha  occ. eigenvalues --   -1.19720
 Alpha virt. eigenvalues --   -1.04059  -1.03567  -1.00981  -0.99899  -0.95059
 Alpha virt. eigenvalues --   -0.94303  -0.93743  -0.93616  -0.92627  -0.90821
 Alpha virt. eigenvalues --   -0.88560  -0.86782  -0.84366  -0.81186  -0.79230

 Mulliken charges:
               1
     1  C    0.384910
     2  O    0.169842
     3  N   -0.050151
     4  C    0.206103
     5  C    0.407545
     6  O   -0.069171
     7  N   -0.233931
     8  C    0.267632
     9  C    0.447631
    10  O   -0.061388
    11  N   -0.199750
    12  C    0.095229
    13  C    0.254768
    14  O    0.089536
    15  C    0.791276
    16  C   -0.222379
    17  C    0.667681
    18  C    0.749824
    19  C    0.600661
    20  O    0.066629
    21  O    0.211240
    22  C    0.918246
    23  H    0.508018
 Sum of Mulliken charges =   6.00000

 Dipole moment (field-independent basis, Debye):
    X=             -0.2230    Y=             -0.8159    Z=             -1.3238  Tot=              1.5709
 Quadrupole moment (field-independent basis, Debye-Ang):
   XX=            288.5537   YY=             19.4197   ZZ=           -101.0497
   XY=            -23.9463   XZ=             -1.8233   YZ=             -3.1059

 Normal termination of Gaussian 16 at Wed Jan 12 16:48:19 2022.
