 Gaussian 16, Revision C.01,
 Gaussian 16:  ES64L-G16RevC.01  3-Jul-2019

 ----------------------------
 #p int=acc2e=12 wb97xd/6-31g
 ----------------------------

 --------------
 Atom number=14
 --------------
 Symbolic Z-matrix:
 Charge =  2 Multiplicity = 1

                         Standard orientation:
 ---------------------------------------------------------------------
 Center     Atomic      Atomic             Coordinates (Angstroms)
 Number     Number       Type             X           Y           Z
 ---------------------------------------------------------------------
      1          6           0       -2.410610   -0.798662    0.325323
      2          8           0       -2.628724   -1.057722   -0.848029
      3          7           0       -1.381171   -0.094057    0.728716
      4          6           0       -0.393897    0.521386   -0.177729
      5          6           0        0.908548   -0.047106    0.249787
      6          8           0        1.336796    0.130408    1.385467
      7          7           0        1.512300   -0.790501   -0.658988
      8          6           0        2.651183   -1.612531   -0.298762
      9          6           0       -0.335428    2.034604   -0.038124
     10          6           0        0.889966    2.615099   -0.758972
     11          1           0       -3.043491   -1.148430    1.114007
     12          1           0       -1.247074    2.449510   -0.414495
     13          1           0        3.451311   -1.316543   -0.944584
     14          1           0        2.398196   -2.650847   -0.351661
 ---------------------------------------------------------------------

 SCF Done:  E(RwB97XD) =  -489.290365980     A.U. after   48 cycles

 The electronic state is 1-A.
 Alpha  occ. eigenvalues --  -19.72219 -19.70046 -14.98484 -14.88726 -10.88823
 Alpha  occ. eigenvalues --  -10.87091 -10.83406 -10.80775 -10.78567 -10.76657
 Alpha  occ. eigenvalues --   -1.61705  -1.60253  -1.47893  -1.42124  -1.34179
 Alpha  occ. eigenvalues --   -1.24523  -1.19488  -1.09829  -1.07090  -1.00615
 Alpha  occ. eigenvalues --   -0.97871  -0.95862  -0.95194  -0.94364  -0.93543
 Alpha  occ. eigenvalues --   -0.91136  -0.88400  -0.86753  -0.81927  -0.80229
 Alpha  occ. eigenvalues --   -0.78054  -0.76604  -0.73482  -0.71972
 Alpha virt. eigenvalues --   -0.57503  -0.49617  -0.45578  -0.43294  -0.37488
 Alpha virt. eigenvalues --   -0.31683  -0.29017  -0.16185  -0.12318  -0.11664
 Alpha virt. eigenvalues --   -0.10195  -0.07801  -0.07201  -0.06294  -0.05882

 Mulliken charges:
               1
     1  C    0.285512
     2  O   -0.110543
     3  N   -0.073278
     4  C    0.179481
     5  C    0.365251
     6  O   -0.159524
     7  N   -0.312209
     8  C    0.087751
     9  C   -0.188850
    10  C    0.540724
    11  H    0.352551
    12  H    0.357363
    13  H    0.336489
    14  H    0.339283
 Sum of Mulliken charges =   2.00000

 Dipole moment (field-independent basis, Debye):
    X=              1.3963    Y=              0.9410    Z=             -1.4952  Tot=              2.2519
 Quadrupole moment (field-independent basis, Debye-Ang):
   XX=             -7.4522   YY=            -17.6814   ZZ=            -53.1338
   XY=            -12.2667   XZ=             -9.7881   YZ=             -5.1547

 Normal termination of Gaussian 16 at Wed Jan  5 16:40:46 2022.
