 Gaussian 16, Revision C.01,
 Gaussian 16:  ES64L-G16RevC.01  3-Jul-2019

 ----------------------------
 #p int=acc2e=12 wb97xd/6-31g
 ----------------------------

 --------------
 Atom number=21
 --------------
 Symbolic Z-matrix:
 Charge =  5 Multiplicity = 1

                         Standard orientation:
 ---------------------------------------------------------------------
 Center     Atomic      Atomic             Coordinates (Angstroms)
 Number     Number       Type             X           Y           Z
 ---------------------------------------------------------------------
      1          6           0        4.202062    0.634799   -0.223056
      2          8           0        4.155601    0.530967   -1.427261
      3          7           0        3.279822    0.127608    0.561060
      4          6           0        2.136092   -0.585714    0.021542
      5          6           0        0.885750   -0.023176    0.637312
      6          8           0        0.785598    0.167861    1.832528
      7          7           0       -0.091360    0.187887   -0.213123
      8          6           0       -1.358078    0.640500    0.220390
      9          6           0        2.195439   -2.119168    0.279830
     10          6           0        0.919993   -2.799939   -0.183824
     11          6           0       -2.421408   -0.274137   -0.359687
     12          8           0       -2.513681   -0.393835   -1.535074
     13          7           0       -3.240970   -0.871655    0.475949
     14          6           0       -4.248657   -1.800707    0.006443
     15          6           0       -1.615651    2.055583   -0.299134
     16          6           0       -3.046751    2.446792    0.012093
     17          6           0       -0.651625    3.030747    0.306828
     18          1           0        4.967259    1.197027    0.270170
     19          1           0        3.059270   -2.529865   -0.199778
     20          1           0       -5.177109   -1.653973    0.517662
     21          1           0       -3.884999   -2.793502    0.170793
 ---------------------------------------------------------------------

 SCF Done:  E(RwB97XD) =  -806.821036205     A.U. after   50 cycles

 The electronic state is 1-A.
 Alpha  occ. eigenvalues --  -20.12583 -20.12529 -20.07486 -15.36939 -15.33209
 Alpha  occ. eigenvalues --  -15.33033 -11.30259 -11.29686 -11.27451 -11.25420
 Alpha  occ. eigenvalues --  -11.24975 -11.21775 -11.21405 -11.21014 -11.17086
 Alpha  occ. eigenvalues --  -11.16654 -11.13027  -2.05170  -2.00041  -1.99249
 Alpha  occ. eigenvalues --   -1.87247  -1.86724  -1.83428  -1.76785  -1.69338
 Alpha  occ. eigenvalues --   -1.66403  -1.61670  -1.58414  -1.55539  -1.48977
 Alpha  occ. eigenvalues --   -1.44666  -1.42631  -1.41318  -1.38256  -1.35982
 Alpha  occ. eigenvalues --   -1.35592  -1.35180  -1.33017  -1.32179  -1.31708
 Alpha  occ. eigenvalues --   -1.29459  -1.28731  -1.27964  -1.26453  -1.24333
 Alpha  occ. eigenvalues --   -1.22246  -1.21402  -1.18910  -1.17468  -1.16731
 Alpha  occ. eigenvalues --   -1.15660  -1.14272  -1.12203  -1.11212  -1.10751
 Alpha virt. eigenvalues --   -0.97040  -0.92338  -0.88457  -0.86514  -0.84639
 Alpha virt. eigenvalues --   -0.83834  -0.83715  -0.82423  -0.80558  -0.73912
 Alpha virt. eigenvalues --   -0.72407  -0.70766  -0.68193  -0.64561  -0.53643

 Mulliken charges:
               1
     1  C    0.367621
     2  O    0.079732
     3  N   -0.053201
     4  C    0.157184
     5  C    0.369893
     6  O   -0.082025
     7  N   -0.179411
     8  C    0.305110
     9  C   -0.105331
    10  C    0.619754
    11  C    0.329094
    12  O    0.011265
    13  N   -0.074864
    14  C    0.185445
    15  C   -0.238247
    16  C    0.746831
    17  C    0.734858
    18  H    0.474001
    19  H    0.435235
    20  H    0.467333
    21  H    0.449724
 Sum of Mulliken charges =   5.00000

 Dipole moment (field-independent basis, Debye):
    X=             -8.2933    Y=             -2.2343    Z=              0.1443  Tot=              8.5902
 Quadrupole moment (field-independent basis, Debye-Ang):
   XX=            165.4451   YY=             21.1169   ZZ=            -84.0967
   XY=              6.0812   XZ=             -6.3155   YZ=             -0.1764

 Normal termination of Gaussian 16 at Wed Jan 12 16:47:17 2022.
