 Gaussian 16, Revision C.01,
 Gaussian 16:  ES64L-G16RevC.01  3-Jul-2019

 ----------------------------
 #p int=acc2e=12 wb97xd/6-31g
 ----------------------------

 --------------
 Atom number=26
 --------------
 Symbolic Z-matrix:
 Charge =  1 Multiplicity = 1

                         Standard orientation:
 ---------------------------------------------------------------------
 Center     Atomic      Atomic             Coordinates (Angstroms)
 Number     Number       Type             X           Y           Z
 ---------------------------------------------------------------------
      1          6           0        5.296085    0.462130   -0.166163
      2          8           0        5.171818    0.598780   -1.378830
      3          7           0        4.374412   -0.070169    0.614992
      4          6           0        3.206160   -0.711152    0.043260
      5          6           0        2.004271   -0.012472    0.639483
      6          8           0        1.995638    0.191518    1.802515
      7          7           0        1.009198    0.301400   -0.200437
      8          6           0       -0.255260    0.889110    0.199621
      9          6           0        3.248922   -2.258273    0.290618
     10          8           0        4.416127   -2.790871   -0.341488
     11          6           0       -1.351153    0.149615   -0.520942
     12          8           0       -1.447467    0.222430   -1.738581
     13          7           0       -2.125376   -0.622268    0.216269
     14          6           0       -3.197085   -1.403022   -0.351252
     15          6           0       -4.532912   -0.903788    0.218135
     16          8           0       -4.657241   -0.803090    1.438009
     17          7           0       -5.487672   -0.552261   -0.671211
     18          6           0       -6.861482   -0.235885   -0.247465
     19          6           0       -0.320753    2.345586   -0.234426
     20          8           0        0.828517    3.055274    0.261612
     21          6           0       -1.516485    2.961188    0.304742
     22          1           0        6.205050    0.729339    0.331110
     23          1           0        2.410677   -2.752071   -0.154813
     24          1           0       -3.067010   -2.443737   -0.139376
     25          1           0       -7.492240   -1.077194   -0.445566
     26          1           0       -7.231385    0.656183   -0.708209
 ---------------------------------------------------------------------

 SCF Done:  E(RwB97XD) =  -1090.52100828     A.U. after   48 cycles

 The electronic state is 1-A.
 Alpha  occ. eigenvalues --  -19.53179 -19.47276 -19.46519 -19.43364 -19.41466
 Alpha  occ. eigenvalues --  -19.39973 -14.68823 -14.66233 -14.66139 -14.64999
 Alpha  occ. eigenvalues --  -10.69938 -10.62390 -10.62222 -10.61524 -10.60236
 Alpha  occ. eigenvalues --  -10.60050 -10.59361 -10.58718 -10.57718 -10.56560
 Alpha  occ. eigenvalues --  -10.54277  -1.40179  -1.35888  -1.32815  -1.31466
 Alpha  occ. eigenvalues --   -1.31231  -1.24976  -1.21650  -1.19772  -1.18194
 Alpha  occ. eigenvalues --   -1.16487  -1.11297  -1.04809  -1.02860  -0.99846
 Alpha  occ. eigenvalues --   -0.96150  -0.89955  -0.86918  -0.85315  -0.81178
 Alpha  occ. eigenvalues --   -0.79423  -0.77152  -0.76145  -0.73901  -0.73067
 Alpha  occ. eigenvalues --   -0.72935  -0.72391  -0.71980  -0.70899  -0.69436
 Alpha  occ. eigenvalues --   -0.68601  -0.68298  -0.66952  -0.66227  -0.65482
 Alpha  occ. eigenvalues --   -0.64425  -0.63763  -0.63676  -0.61936  -0.60934
 Alpha  occ. eigenvalues --   -0.60439  -0.58320  -0.57047  -0.56790  -0.54045
 Alpha  occ. eigenvalues --   -0.52858  -0.51352  -0.50992  -0.50419  -0.48708
 Alpha  occ. eigenvalues --   -0.48077  -0.47861  -0.45939
 Alpha virt. eigenvalues --   -0.35032  -0.28441  -0.27167  -0.25964  -0.23759
 Alpha virt. eigenvalues --   -0.21866  -0.18371  -0.17309  -0.09478  -0.07223
 Alpha virt. eigenvalues --   -0.05795  -0.03479   0.05804   0.06621   0.07052

 Mulliken charges:
               1
     1  C    0.311845
     2  O   -0.347261
     3  N   -0.284380
     4  C    0.195432
     5  C    0.426466
     6  O   -0.248811
     7  N   -0.326398
     8  C    0.192602
     9  C    0.190029
    10  O   -0.274944
    11  C    0.386620
    12  O   -0.349672
    13  N   -0.351846
    14  C    0.150372
    15  C    0.400634
    16  O   -0.357575
    17  N   -0.400912
    18  C    0.019190
    19  C    0.164721
    20  O   -0.247633
    21  C    0.453281
    22  H    0.232307
    23  H    0.255253
    24  H    0.289595
    25  H    0.262544
    26  H    0.258541
 Sum of Mulliken charges =   1.00000

 Dipole moment (field-independent basis, Debye):
    X=            -11.2364    Y=             -0.0796    Z=             -0.0307  Tot=             11.2367
 Quadrupole moment (field-independent basis, Debye-Ang):
   XX=             -8.6423   YY=            -92.1358   ZZ=           -130.5920
   XY=              2.6670   XZ=             20.7712   YZ=              2.2192

 Normal termination of Gaussian 16 at Wed Jan 12 16:47:24 2022.
