 Gaussian 16, Revision C.01,
 Gaussian 16:  ES64L-G16RevC.01  3-Jul-2019

 ----------------------------
 #p int=acc2e=12 wb97xd/6-31g
 ----------------------------

 --------------
 Atom number=14
 --------------
 Symbolic Z-matrix:
 Charge =  2 Multiplicity = 1

                         Standard orientation:
 ---------------------------------------------------------------------
 Center     Atomic      Atomic             Coordinates (Angstroms)
 Number     Number       Type             X           Y           Z
 ---------------------------------------------------------------------
      1          6           0       -2.546281   -0.771235    0.128323
      2          8           0       -2.734590   -0.648293   -1.060153
      3          7           0       -1.465188   -0.317368    0.718109
      4          6           0       -0.420073    0.356334   -0.031483
      5          6           0        0.900881   -0.269317    0.318684
      6          8           0        1.227049   -0.485415    1.468460
      7          7           0        1.679740   -0.506516   -0.710708
      8          6           0        2.985576   -1.019844   -0.541439
      9          6           0       -0.358129    1.886144    0.247009
     10          6           0        0.829518    2.520425   -0.454681
     11          1           0       -3.223127   -1.309194    0.758704
     12          1           0       -1.280485    2.341375   -0.047822
     13          1           0        3.667564   -0.400235   -1.085385
     14          1           0        3.045565   -2.010128   -0.942238
 ---------------------------------------------------------------------

 SCF Done:  E(RwB97XD) =  -489.305434732     A.U. after   41 cycles

 The electronic state is 1-A.
 Alpha  occ. eigenvalues --  -19.71061 -19.69844 -14.97065 -14.91375 -10.87842
 Alpha  occ. eigenvalues --  -10.86787 -10.84241 -10.80036 -10.79755 -10.76797
 Alpha  occ. eigenvalues --   -1.61813  -1.61054  -1.47402  -1.44784  -1.33347
 Alpha  occ. eigenvalues --   -1.24813  -1.20788  -1.09937  -1.06264  -1.00511
 Alpha  occ. eigenvalues --   -0.98890  -0.96388  -0.95333  -0.94526  -0.94357
 Alpha  occ. eigenvalues --   -0.91292  -0.88875  -0.86069  -0.83904  -0.80002
 Alpha  occ. eigenvalues --   -0.77518  -0.75893  -0.74963  -0.71903
 Alpha virt. eigenvalues --   -0.57077  -0.48914  -0.45308  -0.44589  -0.37106
 Alpha virt. eigenvalues --   -0.30936  -0.28751  -0.14512  -0.12425  -0.11224
 Alpha virt. eigenvalues --   -0.10983  -0.08587  -0.07225  -0.06768  -0.05785

 Mulliken charges:
               1
     1  C    0.277377
     2  O   -0.123796
     3  N   -0.083581
     4  C    0.172659
     5  C    0.382853
     6  O   -0.153614
     7  N   -0.278754
     8  C    0.083556
     9  C   -0.187981
    10  C    0.501312
    11  H    0.355879
    12  H    0.356978
    13  H    0.346695
    14  H    0.350416
 Sum of Mulliken charges =   2.00000

 Dipole moment (field-independent basis, Debye):
    X=              2.9666    Y=              1.5297    Z=             -1.8916  Tot=              3.8365
 Quadrupole moment (field-independent basis, Debye-Ang):
   XX=              2.0902   YY=            -25.5012   ZZ=            -54.1221
   XY=             -7.4315   XZ=            -12.8136   YZ=              0.4494

 Normal termination of Gaussian 16 at Wed Jan 12 16:44:15 2022.
