 Gaussian 16, Revision C.01,
 Gaussian 16:  ES64L-G16RevC.01  3-Jul-2019

 ----------------------------
 #p int=acc2e=12 wb97xd/6-31g
 ----------------------------

 --------------
 Atom number=11
 --------------
 Symbolic Z-matrix:
 Charge =  1 Multiplicity = 1

                         Standard orientation:
 ---------------------------------------------------------------------
 Center     Atomic      Atomic             Coordinates (Angstroms)
 Number     Number       Type             X           Y           Z
 ---------------------------------------------------------------------
      1          6           0       -2.202913   -0.367970    0.486841
      2          8           0       -2.183066    0.859686    0.552243
      3          7           0       -1.404746   -1.063271   -0.302158
      4          6           0       -0.430033   -0.404128   -1.139805
      5          6           0        0.728179    0.232958   -0.459812
      6          8           0        0.832471    1.444707   -0.349231
      7          7           0        1.626603   -0.611576   -0.014236
      8          6           0        2.840407   -0.214945    0.723656
      9          1           0       -2.891801   -0.936999    1.075518
     10          1           0        3.647934   -0.611464    0.144371
     11          1           0        2.881794   -0.638244    1.705494
 ---------------------------------------------------------------------

 SCF Done:  E(RwB97XD) =  -413.239291705     A.U. after   26 cycles

 The electronic state is 1-A.
 Alpha  occ. eigenvalues --  -19.51991 -19.51191 -14.79442 -14.73401 -10.72173
 Alpha  occ. eigenvalues --  -10.68223 -10.64359 -10.64315  -1.43177  -1.42127
 Alpha  occ. eigenvalues --   -1.29783  -1.25833  -1.10870  -1.03720  -0.94559
 Alpha  occ. eigenvalues --   -0.84886  -0.82019  -0.79868  -0.77614  -0.76934
 Alpha  occ. eigenvalues --   -0.76328  -0.73041  -0.68323  -0.65430  -0.63480
 Alpha  occ. eigenvalues --   -0.59431  -0.58300  -0.55954
 Alpha virt. eigenvalues --   -0.35162  -0.30413  -0.28778  -0.13467  -0.12851
 Alpha virt. eigenvalues --    0.02063   0.02474   0.03672   0.06128   0.06993
 Alpha virt. eigenvalues --    0.12612   0.14921   0.18165   0.22425   0.27065

 Mulliken charges:
               1
     1  C    0.266013
     2  O   -0.233400
     3  N   -0.239788
     4  C    0.500801
     5  C    0.355082
     6  O   -0.248908
     7  N   -0.351987
     8  C    0.056850
     9  H    0.295305
    10  H    0.300074
    11  H    0.299958
 Sum of Mulliken charges =   1.00000

 Dipole moment (field-independent basis, Debye):
    X=              3.5568    Y=             -4.0117    Z=              1.3171  Tot=              5.5208
 Quadrupole moment (field-independent basis, Debye-Ang):
   XX=             -8.3693   YY=            -46.9981   ZZ=            -36.3201
   XY=              1.6947   XZ=              5.3677   YZ=             -2.1475

 Normal termination of Gaussian 16 at Wed Jan 12 16:48:23 2022.
