 Gaussian 16, Revision C.01,
 Gaussian 16:  ES64L-G16RevC.01  3-Jul-2019

 ----------------------------
 #p int=acc2e=12 wb97xd/6-31g
 ----------------------------

 --------------
 Atom number=15
 --------------
 Symbolic Z-matrix:
 Charge =  3 Multiplicity = 1

                         Standard orientation:
 ---------------------------------------------------------------------
 Center     Atomic      Atomic             Coordinates (Angstroms)
 Number     Number       Type             X           Y           Z
 ---------------------------------------------------------------------
      1          7           0       -4.522302   -0.814397    0.049157
      2          6           0       -3.118837   -0.915589    0.566751
      3          6           0       -1.940619   -0.275714   -0.171936
      4          8           0       -1.997167    0.011532   -1.345539
      5          7           0       -0.844721   -0.127050    0.534826
      6          6           0        0.375848    0.387003   -0.060142
      7          6           0        1.507274   -0.537935    0.291055
      8          8           0        1.682719   -0.940672    1.423349
      9          7           0        2.307364   -0.822283   -0.709711
     10          6           0        3.462388   -1.615432   -0.524778
     11          6           0        0.722729    1.829989    0.408026
     12          6           0        2.070209    2.270435   -0.135565
     13          6           0       -0.365882    2.761480    0.000394
     14          1           0        4.300100   -1.099245   -0.945123
     15          1           0        3.354431   -2.546940   -1.040082
 ---------------------------------------------------------------------

 SCF Done:  E(RwB97XD) =  -617.951399748     A.U. after   49 cycles

 The electronic state is 1-A.
 Alpha  occ. eigenvalues --  -19.87292 -19.84555 -15.12630 -15.08448 -15.05014
 Alpha  occ. eigenvalues --  -11.06590 -11.05999 -11.02670 -11.00656 -10.97830
 Alpha  occ. eigenvalues --  -10.96326 -10.94107 -10.92480  -1.77913  -1.75352
 Alpha  occ. eigenvalues --   -1.61748  -1.58286  -1.52876  -1.48188  -1.41906
 Alpha  occ. eigenvalues --   -1.35267  -1.31876  -1.28260  -1.19404  -1.18796
 Alpha  occ. eigenvalues --   -1.10714  -1.10531  -1.09232  -1.08360  -1.08294
 Alpha  occ. eigenvalues --   -1.04720  -1.02241  -1.01171  -0.98697  -0.97337
 Alpha  occ. eigenvalues --   -0.95826  -0.94643  -0.92145  -0.90645  -0.89888
 Alpha  occ. eigenvalues --   -0.88583  -0.84057
 Alpha virt. eigenvalues --   -0.72427  -0.64918  -0.63696  -0.62362  -0.59962
 Alpha virt. eigenvalues --   -0.57111  -0.57063  -0.54037  -0.50719  -0.44064
 Alpha virt. eigenvalues --   -0.40257  -0.31373  -0.25595  -0.23882  -0.22851

 Mulliken charges:
               1
     1  N    0.265121
     2  C    0.459960
     3  C    0.366634
     4  O   -0.093682
     5  N   -0.182480
     6  C    0.245777
     7  C    0.383668
     8  O   -0.097456
     9  N   -0.245687
    10  C    0.109331
    11  C   -0.253877
    12  C    0.643119
    13  C    0.637637
    14  H    0.375179
    15  H    0.386755
 Sum of Mulliken charges =   3.00000

 Dipole moment (field-independent basis, Debye):
    X=              5.0541    Y=              2.9349    Z=             -1.2981  Tot=              5.9868
 Quadrupole moment (field-independent basis, Debye-Ang):
   XX=             42.4830   YY=            -17.5903   ZZ=            -64.8638
   XY=             -3.6580   XZ=            -13.5638   YZ=              5.7378

 Normal termination of Gaussian 16 at Wed Jan  5 16:37:59 2022.
