 Gaussian 16, Revision C.01,
 Gaussian 16:  ES64L-G16RevC.01  3-Jul-2019

 ----------------------------
 #p int=acc2e=12 wb97xd/6-31g
 ----------------------------

 --------------
 Atom number=17
 --------------
 Symbolic Z-matrix:
 Charge =  1 Multiplicity = 1

                         Standard orientation:
 ---------------------------------------------------------------------
 Center     Atomic      Atomic             Coordinates (Angstroms)
 Number     Number       Type             X           Y           Z
 ---------------------------------------------------------------------
      1          6           0       -3.032426    1.537740   -0.480872
      2          8           0       -3.364371    1.784399    0.629691
      3          7           0       -2.303354    0.486482   -0.781383
      4          6           0       -1.947861   -0.494694    0.223566
      5          6           0       -0.515906   -0.930433    0.073927
      6          8           0       -0.137564   -1.512263   -0.941031
      7          7           0        0.280485   -0.658661    1.091245
      8          6           0        1.677329   -1.024726    1.059431
      9          6           0       -2.900329   -1.706169    0.067305
     10          6           0        2.553088   -0.276419    0.119853
     11          8           0        2.977385   -0.774303   -0.911420
     12          7           0        2.842670    0.943266    0.503844
     13          6           0        3.663138    1.884567   -0.280954
     14          1           0       -3.296815    2.206659   -1.273050
     15          1           0       -2.828686   -2.446847    0.836177
     16          1           0        4.470093    2.145317    0.371528
     17          1           0        3.130997    2.775384   -0.542053
 ---------------------------------------------------------------------

 SCF Done:  E(RwB97XD) =  -657.682409505     A.U. after   40 cycles

 The electronic state is 1-A.
 Alpha  occ. eigenvalues --  -19.50231 -19.49010 -19.38849 -14.77451 -14.71620
 Alpha  occ. eigenvalues --  -14.65166 -10.69804 -10.66155 -10.65472 -10.62716
 Alpha  occ. eigenvalues --  -10.59701 -10.59035 -10.53639  -1.41966  -1.40565
 Alpha  occ. eigenvalues --   -1.33295  -1.28397  -1.24067  -1.18920  -1.09860
 Alpha  occ. eigenvalues --   -1.05769  -1.01469  -0.93987  -0.90490  -0.84091
 Alpha  occ. eigenvalues --   -0.80414  -0.78343  -0.76796  -0.76276  -0.75973
 Alpha  occ. eigenvalues --   -0.74983  -0.72588  -0.70428  -0.67550  -0.66471
 Alpha  occ. eigenvalues --   -0.65113  -0.63671  -0.62209  -0.61236  -0.57426
 Alpha  occ. eigenvalues --   -0.56694  -0.54223  -0.51410  -0.48227  -0.46549
 Alpha virt. eigenvalues --   -0.33972  -0.28799  -0.27276  -0.26917  -0.18446
 Alpha virt. eigenvalues --   -0.12225  -0.11567  -0.02232   0.03260   0.04027
 Alpha virt. eigenvalues --    0.06022   0.06671   0.07399   0.09503   0.12089

 Mulliken charges:
               1
     1  C    0.272740
     2  O   -0.353142
     3  N   -0.294867
     4  C    0.078900
     5  C    0.350917
     6  O   -0.247402
     7  N   -0.263072
     8  C    0.484875
     9  C    0.160233
    10  C    0.355397
    11  O   -0.267898
    12  N   -0.357574
    13  C    0.051281
    14  H    0.217637
    15  H    0.224806
    16  H    0.293309
    17  H    0.293860
 Sum of Mulliken charges =   1.00000

 Dipole moment (field-independent basis, Debye):
    X=              6.0868    Y=              1.2273    Z=              1.8417  Tot=              6.4767
 Quadrupole moment (field-independent basis, Debye-Ang):
   XX=            -26.4923   YY=            -51.3869   ZZ=            -73.3157
   XY=             28.7718   XZ=              5.5100   YZ=            -14.1938

 Normal termination of Gaussian 16 at Wed Jan  5 16:37:07 2022.
