 Gaussian 16, Revision C.01,
 Gaussian 16:  ES64L-G16RevC.01  3-Jul-2019

 ----------------------------
 #p int=acc2e=12 wb97xd/6-31g
 ----------------------------

 --------------
 Atom number=19
 --------------
 Symbolic Z-matrix:
 Charge =  1 Multiplicity = 1

                         Standard orientation:
 ---------------------------------------------------------------------
 Center     Atomic      Atomic             Coordinates (Angstroms)
 Number     Number       Type             X           Y           Z
 ---------------------------------------------------------------------
      1          6           0       -3.564729   -1.343368    0.017189
      2          8           0       -3.700547   -1.405532   -1.154143
      3          7           0       -2.623840   -0.623166    0.641841
      4          6           0       -1.592170    0.146204   -0.027507
      5          6           0       -0.288301   -0.131892    0.672230
      6          8           0       -0.119596    0.229148    1.829127
      7          7           0        0.600738   -0.839732    0.003441
      8          6           0        1.880174   -1.196452    0.565590
      9          6           0        2.990409   -0.531120   -0.260595
     10          8           0        2.988457   -0.675874   -1.482369
     11          7           0        3.886531    0.225980    0.410107
     12          6           0        5.092472    0.759684   -0.244016
     13          6           0       -1.875929    1.634962    0.103224
     14          8           0       -3.205830    1.921757   -0.365438
     15          6           0       -0.928530    2.383533   -0.697725
     16          1           0       -4.220559   -1.920560    0.634955
     17          1           0        2.010485   -2.258406    0.578667
     18          1           0        5.934660    0.158688    0.028791
     19          1           0        5.251175    1.793404   -0.017881
 ---------------------------------------------------------------------

 SCF Done:  E(RwB97XD) =  -770.860591731     A.U. after   46 cycles

 The electronic state is 1-A.
 Alpha  occ. eigenvalues --  -19.55175 -19.46134 -19.44394 -19.42279 -14.70519
 Alpha  occ. eigenvalues --  -14.67649 -14.65673 -10.71905 -10.64551 -10.63340
 Alpha  occ. eigenvalues --  -10.61028 -10.60391 -10.59500 -10.58919 -10.57196
 Alpha  occ. eigenvalues --   -1.39014  -1.36924  -1.33613  -1.33254  -1.22338
 Alpha  occ. eigenvalues --   -1.20923  -1.17178  -1.12677  -1.04911  -1.01637
 Alpha  occ. eigenvalues --   -0.96960  -0.88180  -0.86658  -0.81483  -0.79076
 Alpha  occ. eigenvalues --   -0.78152  -0.74736  -0.73561  -0.72699  -0.72598
 Alpha  occ. eigenvalues --   -0.71567  -0.70296  -0.69340  -0.68776  -0.67282
 Alpha  occ. eigenvalues --   -0.65799  -0.64550  -0.62291  -0.61270  -0.59129
 Alpha  occ. eigenvalues --   -0.58548  -0.54802  -0.52680  -0.51754  -0.50738
 Alpha  occ. eigenvalues --   -0.49468  -0.48759
 Alpha virt. eigenvalues --   -0.35522  -0.30115  -0.27783  -0.24684  -0.22494
 Alpha virt. eigenvalues --   -0.19903  -0.09953  -0.07159  -0.05949   0.04712
 Alpha virt. eigenvalues --    0.05699   0.06574   0.08298   0.09688   0.10410

 Mulliken charges:
               1
     1  C    0.304088
     2  O   -0.248944
     3  N   -0.277172
     4  C    0.185054
     5  C    0.389380
     6  O   -0.343790
     7  N   -0.335143
     8  C    0.154877
     9  C    0.398712
    10  O   -0.351738
    11  N   -0.399556
    12  C    0.021211
    13  C    0.168601
    14  O   -0.225415
    15  C    0.472564
    16  H    0.260712
    17  H    0.300627
    18  H    0.265605
    19  H    0.260327
 Sum of Mulliken charges =   1.00000

 Dipole moment (field-independent basis, Debye):
    X=              4.9439    Y=              1.9666    Z=              1.7101  Tot=              5.5887
 Quadrupole moment (field-independent basis, Debye-Ang):
   XX=            -10.5820   YY=            -61.8843   ZZ=            -92.1596
   XY=              6.3986   XZ=             -1.5383   YZ=             -8.7264

 Normal termination of Gaussian 16 at Wed Jan 12 16:49:02 2022.
