 Gaussian 16, Revision C.01,
 Gaussian 16:  ES64L-G16RevC.01  3-Jul-2019

 ----------------------------
 #p int=acc2e=12 wb97xd/6-31g
 ----------------------------

 --------------
 Atom number=14
 --------------
 Symbolic Z-matrix:
 Charge =  0 Multiplicity = 1

                         Standard orientation:
 ---------------------------------------------------------------------
 Center     Atomic      Atomic             Coordinates (Angstroms)
 Number     Number       Type             X           Y           Z
 ---------------------------------------------------------------------
      1          6           0       -1.956853   -1.384264    0.279993
      2          8           0       -2.020617   -1.670070   -0.911194
      3          7           0       -1.098072   -0.518854    0.786536
      4          6           0       -0.282687    0.304563   -0.085060
      5          6           0        1.155030    0.039111    0.303111
      6          8           0        1.431416    0.026448    1.451057
      7          7           0        2.029080   -0.134329   -0.696943
      8          6           0        3.458807   -0.308149   -0.523830
      9          6           0       -0.716175    1.807697    0.011252
     10          8           0       -2.080702    1.918082   -0.402832
     11          1           0       -2.647319   -1.795971    0.986147
     12          1           0       -0.147080    2.425395   -0.651681
     13          1           0        3.950865    0.314232   -1.241758
     14          1           0        3.736963   -1.320808   -0.728893
 ---------------------------------------------------------------------

 SCF Done:  E(RwB97XD) =  -527.368988707     A.U. after   33 cycles

 The electronic state is 1-A.
 Alpha  occ. eigenvalues --  -19.33713 -19.29251 -19.23419 -14.53782 -14.49742
 Alpha  occ. eigenvalues --  -10.46238 -10.44957 -10.44937 -10.44439 -10.39838
 Alpha  occ. eigenvalues --   -1.23952  -1.15622  -1.11646  -1.06076  -1.02687
 Alpha  occ. eigenvalues --   -0.89988  -0.85350  -0.76083  -0.70390  -0.64162
 Alpha  occ. eigenvalues --   -0.61877  -0.61336  -0.57896  -0.57214  -0.54038
 Alpha  occ. eigenvalues --   -0.52764  -0.51543  -0.49472  -0.47779  -0.46794
 Alpha  occ. eigenvalues --   -0.42820  -0.38774  -0.37508  -0.37087  -0.32828
 Alpha  occ. eigenvalues --   -0.32481
 Alpha virt. eigenvalues --   -0.12586  -0.11448  -0.03815   0.06872   0.10745
 Alpha virt. eigenvalues --    0.16454   0.19754   0.20376   0.20965   0.22224
 Alpha virt. eigenvalues --    0.24658   0.28143   0.29304   0.31669   0.37090

 Mulliken charges:
               1
     1  C    0.292001
     2  O   -0.448100
     3  N   -0.349382
     4  C    0.195831
     5  C    0.395592
     6  O   -0.342451
     7  N   -0.408306
     8  C   -0.020521
     9  C    0.170100
    10  O   -0.335069
    11  H    0.167907
    12  H    0.220217
    13  H    0.228267
    14  H    0.233913
 Sum of Mulliken charges =   0.00000

 Dipole moment (field-independent basis, Debye):
    X=              7.2166    Y=              1.1970    Z=             -0.8393  Tot=              7.3632
 Quadrupole moment (field-independent basis, Debye-Ang):
   XX=            -44.7827   YY=            -56.1036   ZZ=            -61.9058
   XY=             -1.2438   XZ=            -13.3348   YZ=             -3.9612

 Normal termination of Gaussian 16 at Wed Jan  5 16:40:45 2022.
