 Gaussian 16, Revision C.01,
 Gaussian 16:  ES64L-G16RevC.01  3-Jul-2019

 ----------------------------
 #p int=acc2e=12 wb97xd/6-31g
 ----------------------------

 --------------
 Atom number=18
 --------------
 Symbolic Z-matrix:
 Charge =  4 Multiplicity = 1

                         Standard orientation:
 ---------------------------------------------------------------------
 Center     Atomic      Atomic             Coordinates (Angstroms)
 Number     Number       Type             X           Y           Z
 ---------------------------------------------------------------------
      1          6           0       -3.985065    0.165213    0.456075
      2          8           0       -4.086848    0.082590   -0.766473
      3          7           0       -3.097152   -0.516817    1.155703
      4          6           0       -2.163664   -1.406560    0.505208
      5          6           0       -1.096258   -0.783463   -0.320697
      6          8           0       -1.114008   -0.817508   -1.541339
      7          7           0       -0.135400   -0.220057    0.370870
      8          6           0        1.008741    0.490685   -0.229887
      9          6           0        2.203123   -0.216240    0.295494
     10          8           0        2.432301   -0.267315    1.499464
     11          7           0        2.936883   -0.818856   -0.621826
     12          6           0        3.975696   -1.753843   -0.235541
     13          6           0        1.079067    1.949430    0.194203
     14          6           0        2.424639    2.579632   -0.193698
     15          6           0       -0.069651    2.683180   -0.419570
     16          1           0       -4.634676    0.803170    1.018140
     17          1           0        4.882616   -1.392847   -0.673807
     18          1           0        3.710425   -2.750558   -0.520304
 ---------------------------------------------------------------------

 SCF Done:  E(RwB97XD) =  -731.051690945     A.U. after   48 cycles

 The electronic state is 1-A.
 Alpha  occ. eigenvalues --  -20.01260 -19.98109 -19.95079 -15.25034 -15.21940
 Alpha  occ. eigenvalues --  -15.21912 -11.20923 -11.19397 -11.16542 -11.13843
 Alpha  occ. eigenvalues --  -11.13464 -11.13265 -11.10439 -11.07094 -11.03973
 Alpha  occ. eigenvalues --   -1.91139  -1.88751  -1.83714  -1.75565  -1.74581
 Alpha  occ. eigenvalues --   -1.70747  -1.66466  -1.57030  -1.51988  -1.47900
 Alpha  occ. eigenvalues --   -1.45263  -1.37631  -1.33710  -1.32115  -1.26395
 Alpha  occ. eigenvalues --   -1.24836  -1.24277  -1.23621  -1.21710  -1.21404
 Alpha  occ. eigenvalues --   -1.18183  -1.17564  -1.16776  -1.14881  -1.13340
 Alpha  occ. eigenvalues --   -1.12209  -1.09188  -1.07712  -1.06450  -1.05768
 Alpha  occ. eigenvalues --   -1.04049  -1.03137  -1.01283  -0.96551
 Alpha virt. eigenvalues --   -0.86718  -0.78440  -0.77023  -0.75651  -0.75086
 Alpha virt. eigenvalues --   -0.73194  -0.73012  -0.69958  -0.63945  -0.60916
 Alpha virt. eigenvalues --   -0.57255  -0.52046  -0.43665  -0.41324  -0.37587

 Mulliken charges:
               1
     1  C    0.319750
     2  O   -0.056241
     3  N   -0.140934
     4  C    0.644625
     5  C    0.377503
     6  O   -0.081164
     7  N   -0.207751
     8  C    0.290889
     9  C    0.343228
    10  O   -0.034478
    11  N   -0.107354
    12  C    0.177091
    13  C   -0.252868
    14  C    0.737476
    15  C    0.690023
    16  H    0.427921
    17  H    0.435296
    18  H    0.436988
 Sum of Mulliken charges =   4.00000

 Dipole moment (field-independent basis, Debye):
    X=             10.6237    Y=              2.5717    Z=              0.2972  Tot=             10.9345
 Quadrupole moment (field-independent basis, Debye-Ang):
   XX=            101.1038   YY=             -6.4172   ZZ=            -73.1994
   XY=            -14.8649   XZ=            -21.1262   YZ=             -0.1418

 Normal termination of Gaussian 16 at Wed Jan  5 16:38:39 2022.
