 Gaussian 16, Revision C.01,
 Gaussian 16:  ES64L-G16RevC.01  3-Jul-2019

 ----------------------------
 #p int=acc2e=12 wb97xd/6-31g
 ----------------------------

 --------------
 Atom number=12
 --------------
 Symbolic Z-matrix:
 Charge =  1 Multiplicity = 1

                         Standard orientation:
 ---------------------------------------------------------------------
 Center     Atomic      Atomic             Coordinates (Angstroms)
 Number     Number       Type             X           Y           Z
 ---------------------------------------------------------------------
      1          6           0       -2.392137   -0.532186    0.506913
      2          8           0       -2.674614   -0.963655   -0.560053
      3          7           0       -1.267800    0.109737    0.732300
      4          6           0       -0.348946    0.418547   -0.344431
      5          6           0        1.076612    0.184478    0.074792
      6          8           0        1.580859    0.839358    0.985109
      7          7           0        1.731854   -0.744075   -0.597132
      8          6           0        3.105292   -1.059893   -0.280722
      9          6           0       -0.558696    1.900867   -0.741945
     10          1           0       -3.049518   -0.696434    1.335027
     11          1           0       -0.031470    2.219070   -1.616976
     12          1           0        3.289912   -1.558770    0.647684
 ---------------------------------------------------------------------

 SCF Done:  E(RwB97XD) =  -451.139194183     A.U. after   42 cycles

 The electronic state is 1-A.
 Alpha  occ. eigenvalues --  -19.52685 -19.43281 -14.80514 -14.69070 -10.71852
 Alpha  occ. eigenvalues --  -10.68288 -10.63136 -10.63026 -10.57156  -1.44319
 Alpha  occ. eigenvalues --   -1.37238  -1.30622  -1.22495  -1.10854  -1.05642
 Alpha  occ. eigenvalues --   -0.96081  -0.90366  -0.86407  -0.79502  -0.79092
 Alpha  occ. eigenvalues --   -0.78874  -0.74137  -0.70604  -0.69459  -0.67395
 Alpha  occ. eigenvalues --   -0.65264  -0.64415  -0.59656  -0.54776  -0.51855
 Alpha  occ. eigenvalues --   -0.49724
 Alpha virt. eigenvalues --   -0.37048  -0.30548  -0.29719  -0.21763  -0.14735
 Alpha virt. eigenvalues --   -0.05596  -0.00089   0.02033   0.03952   0.08671
 Alpha virt. eigenvalues --    0.09590   0.10996   0.13025   0.16765   0.20381

 Mulliken charges:
               1
     1  C    0.291863
     2  O   -0.314899
     3  N   -0.277298
     4  C    0.083185
     5  C    0.355931
     6  O   -0.247029
     7  N   -0.252209
     8  C    0.341355
     9  C    0.191074
    10  H    0.242861
    11  H    0.243380
    12  H    0.341786
 Sum of Mulliken charges =   1.00000

 Dipole moment (field-independent basis, Debye):
    X=              6.6653    Y=             -0.4032    Z=             -0.8381  Tot=              6.7299
 Quadrupole moment (field-independent basis, Debye-Ang):
   XX=            -20.1689   YY=            -39.3768   ZZ=            -46.3057
   XY=            -13.8995   XZ=             -4.6585   YZ=            -10.2303

 Normal termination of Gaussian 16 at Wed Jan  5 16:40:10 2022.
