 Gaussian 16, Revision C.01,
 Gaussian 16:  ES64L-G16RevC.01  3-Jul-2019

 ----------------------------
 #p int=acc2e=12 wb97xd/6-31g
 ----------------------------

 --------------
 Atom number=21
 --------------
 Symbolic Z-matrix:
 Charge =  3 Multiplicity = 1

                         Standard orientation:
 ---------------------------------------------------------------------
 Center     Atomic      Atomic             Coordinates (Angstroms)
 Number     Number       Type             X           Y           Z
 ---------------------------------------------------------------------
      1          6           0       -3.819425    1.025592    0.162406
      2          8           0       -3.763136    1.132693    1.377644
      3          7           0       -3.094395    0.173001   -0.520498
      4          6           0       -2.168042   -0.799312    0.089091
      5          6           0       -0.851665   -0.493736   -0.524173
      6          8           0       -0.680521   -0.578790   -1.735846
      7          7           0        0.069294   -0.074399    0.323776
      8          6           0        1.308371    0.501682   -0.161372
      9          6           0       -2.535054   -2.239131   -0.234886
     10          6           0       -1.404108   -3.203988    0.150081
     11          6           0        2.424501   -0.317212    0.448413
     12          8           0        2.362429   -0.579183    1.598129
     13          7           0        3.431916   -0.665031   -0.362937
     14          6           0        4.628054   -1.368476    0.059816
     15          6           0        1.370553    2.033131    0.166338
     16          8           0        0.278165    2.685753   -0.486622
     17          6           0        2.614403    2.658119   -0.364749
     18          1           0       -4.459597    1.640126   -0.435448
     19          1           0       -3.448106   -2.481953    0.267382
     20          1           0        5.467685   -0.880094   -0.388961
     21          1           0        4.611287   -2.376881   -0.297589
 ---------------------------------------------------------------------

 SCF Done:  E(RwB97XD) =  -845.682644917     A.U. after   58 cycles

 The electronic state is 1-A.
 Alpha  occ. eigenvalues --  -19.84339 -19.81420 -19.77257 -19.75834 -15.05947
 Alpha  occ. eigenvalues --  -14.98625 -14.96989 -11.01427 -10.96753 -10.94018
 Alpha  occ. eigenvalues --  -10.93123 -10.92931 -10.91817 -10.90018 -10.89161
 Alpha  occ. eigenvalues --  -10.85275 -10.84412  -1.70183  -1.69150  -1.68106
 Alpha  occ. eigenvalues --   -1.61843  -1.55549  -1.52272  -1.48679  -1.42106
 Alpha  occ. eigenvalues --   -1.39216  -1.33195  -1.30332  -1.26498  -1.19096
 Alpha  occ. eigenvalues --   -1.14996  -1.14626  -1.10851  -1.07994  -1.04308
 Alpha  occ. eigenvalues --   -1.04095  -1.03879  -1.02765  -1.02462  -1.01142
 Alpha  occ. eigenvalues --   -1.00200  -0.99594  -0.97947  -0.97069  -0.95018
 Alpha  occ. eigenvalues --   -0.94748  -0.93068  -0.91446  -0.88818  -0.88063
 Alpha  occ. eigenvalues --   -0.86782  -0.85856  -0.85029  -0.83012  -0.81855
 Alpha  occ. eigenvalues --   -0.80299  -0.77753
 Alpha virt. eigenvalues --   -0.65720  -0.62363  -0.57324  -0.56939  -0.55900
 Alpha virt. eigenvalues --   -0.53384  -0.50466  -0.47586  -0.45181  -0.40469
 Alpha virt. eigenvalues --   -0.37497  -0.36316  -0.23822  -0.23025  -0.21190

 Mulliken charges:
               1
     1  C    0.316626
     2  O   -0.082675
     3  N   -0.098177
     4  C    0.176512
     5  C    0.385552
     6  O   -0.183876
     7  N   -0.270660
     8  C    0.231649
     9  C   -0.180020
    10  C    0.543278
    11  C    0.387885
    12  O   -0.154555
    13  N   -0.307789
    14  C    0.079608
    15  C    0.201885
    16  O   -0.138033
    17  C    0.652610
    18  H    0.371851
    19  H    0.371095
    20  H    0.347749
    21  H    0.349486
 Sum of Mulliken charges =   3.00000

 Dipole moment (field-independent basis, Debye):
    X=              2.7593    Y=             -3.2371    Z=             -0.2754  Tot=              4.2624
 Quadrupole moment (field-independent basis, Debye-Ang):
   XX=             78.7680   YY=            -25.3579   ZZ=            -93.4197
   XY=              6.7626   XZ=             -3.1067   YZ=             -1.5281

 Normal termination of Gaussian 16 at Wed Jan  5 16:40:01 2022.
