 Gaussian 16, Revision C.01,
 Gaussian 16:  ES64L-G16RevC.01  3-Jul-2019

 ---------------------
 #p pm6 pop=npa nosymm
 ---------------------

 --------------
 Atom number=26
 --------------
 Symbolic Z-matrix:
 Charge =  1 Multiplicity = 1

                          Input orientation:
 ---------------------------------------------------------------------
 Center     Atomic      Atomic             Coordinates (Angstroms)
 Number     Number       Type             X           Y           Z
 ---------------------------------------------------------------------
      1          6           0        3.005978    0.046974   14.361121
      2          8           0        2.957969   -1.168989   14.515003
      3          7           0        3.480959    0.887010   15.261993
      4          6           0        4.163013    0.391930   16.441897
      5          6           0        3.424029    0.964931   17.630928
      6          8           0        3.135983    2.109940   17.611977
      7          7           0        3.173000    0.128992   18.647032
      8          6           0        2.558977    0.516067   19.903101
      9          6           0        5.687994    0.750071   16.389075
     10          8           0        6.263960    0.129950   15.235949
     11          6           0        3.349913   -0.122035   21.014039
     12          8           0        3.366017   -1.339091   21.140011
     13          7           0        4.067001    0.688033   21.767917
     14          6           0        4.888038    0.205078   22.850949
     15          6           0        4.350082    0.769049   24.174053
     16          8           0        4.161063    1.981107   24.268978
     17          7           0        4.065084   -0.119936   25.150914
     18          6           0        3.720068    0.313040   26.514980
     19          6           0        1.137944   -0.021057   19.983053
     20          8           0        0.393002    0.394045   18.824007
     21          6           0        0.486025    0.501046   21.166990
     22          1           0        2.702387    0.501166   13.441098
     23          1           0        6.213678    0.362216   17.236498
     24          1           0        5.910482    0.488728   22.712926
     25          1           0        4.574076    0.191940   27.148151
     26          1           0        2.864214   -0.202150   26.898376
 ---------------------------------------------------------------------

 SCF Done:  E(RPM6) =  0.991444921378     A.U. after   35 cycles

 Alpha  occ. eigenvalues --   -1.38614  -1.37375  -1.33484  -1.30630  -1.29032
 Alpha  occ. eigenvalues --   -1.27336  -1.26777  -1.24579  -1.20494  -1.19523
 Alpha  occ. eigenvalues --   -1.15576  -1.13795  -1.10864  -1.06731  -1.03462
 Alpha  occ. eigenvalues --   -0.94998  -0.92775  -0.91220  -0.86077  -0.82629
 Alpha  occ. eigenvalues --   -0.81881  -0.78046  -0.77220  -0.76418  -0.75531
 Alpha  occ. eigenvalues --   -0.74659  -0.74045  -0.73508  -0.72900  -0.72087
 Alpha  occ. eigenvalues --   -0.70340  -0.69608  -0.68979  -0.67152  -0.67029
 Alpha  occ. eigenvalues --   -0.66518  -0.64082  -0.63056  -0.61392  -0.59946
 Alpha  occ. eigenvalues --   -0.59057  -0.58625  -0.56788  -0.55708  -0.54848
 Alpha  occ. eigenvalues --   -0.53617  -0.52953  -0.52085  -0.51304  -0.48960
 Alpha  occ. eigenvalues --   -0.46894  -0.46279
 Alpha virt. eigenvalues --   -0.33280  -0.28923  -0.27430  -0.22870  -0.22638
 Alpha virt. eigenvalues --   -0.21779  -0.21646  -0.15343  -0.14571  -0.13561
 Alpha virt. eigenvalues --   -0.12838  -0.12455  -0.11862  -0.10982  -0.09488

 Mulliken charges:
               1
     1  C    0.470854
     2  O   -0.488919
     3  N   -0.421987
     4  C    0.239197
     5  C    0.493591
     6  O   -0.333313
     7  N   -0.335541
     8  C    0.200639
     9  C    0.236000
    10  O   -0.281178
    11  C    0.453980
    12  O   -0.464314
    13  N   -0.481040
    14  C    0.361441
    15  C    0.466372
    16  O   -0.452594
    17  N   -0.507950
    18  C    0.305015
    19  C   -0.113626
    20  O   -0.105451
    21  C    0.953489
    22  H    0.148663
    23  H    0.173870
    24  H    0.175575
    25  H    0.156368
    26  H    0.150861
 Sum of Mulliken charges =   1.00000

 Dipole moment (field-independent basis, Debye):
    X=             10.1511    Y=              3.3080    Z=            112.4468  Tot=            112.9525
 N-N= 8.128253830967D+02 E-N=-1.306900537004D+03  KE=-2.300176867491D+02
 Leave Link  601 at Wed Jan 12 18:27:45 2022, MaxMem=   402653184 cpu:               2.0 elap:               0.4
 (Enter /work/01114/jfonner/frontera/gaussian/16rC.01/g16/l607.exe)
 ******************************Gaussian NBO Version 3.1******************************
             N A T U R A L   A T O M I C   O R B I T A L   A N D
          N A T U R A L   B O N D   O R B I T A L   A N A L Y S I S
 ******************************Gaussian NBO Version 3.1******************************
       /RESON  / : Allow strongly delocalized NBO set

 Analyzing the SCF density

 Summary of Natural Population Analysis:

                                       Natural Population
                Natural  -----------------------------------------------
    Atom  No    Charge         Core      Valence    Rydberg      Total
 -----------------------------------------------------------------------
      C    1    0.47085      2.00000     3.52915    0.00000     5.52915
      O    2   -0.48892      2.00000     6.48892    0.00000     8.48892
      N    3   -0.42199      2.00000     5.42199    0.00000     7.42199
      C    4    0.23920      2.00000     3.76080    0.00000     5.76080
      C    5    0.49359      2.00000     3.50641    0.00000     5.50641
      O    6   -0.33331      2.00000     6.33331    0.00000     8.33331
      N    7   -0.33554      2.00000     5.33554    0.00000     7.33554
      C    8    0.20064      2.00000     3.79936    0.00000     5.79936
      C    9    0.23600      2.00000     3.76400    0.00000     5.76400
      O   10   -0.28118      2.00000     6.28118    0.00000     8.28118
      C   11    0.45398      2.00000     3.54602    0.00000     5.54602
      O   12   -0.46431      2.00000     6.46431    0.00000     8.46431
      N   13   -0.48104      2.00000     5.48104    0.00000     7.48104
      C   14    0.36144      2.00000     3.63856    0.00000     5.63856
      C   15    0.46637      2.00000     3.53363    0.00000     5.53363
      O   16   -0.45259      2.00000     6.45259    0.00000     8.45259
      N   17   -0.50795      2.00000     5.50795    0.00000     7.50795
      C   18    0.30502      2.00000     3.69498    0.00000     5.69498
      C   19   -0.11363      2.00000     4.11363    0.00000     6.11363
      O   20   -0.10545      2.00000     6.10545    0.00000     8.10545
      C   21    0.95349      2.00000     3.04651    0.00000     5.04651
      H   22    0.14866      0.00000     0.85134    0.00000     0.85134
      H   23    0.17387      0.00000     0.82613    0.00000     0.82613
      H   24    0.17558      0.00000     0.82442    0.00000     0.82442
      H   25    0.15637      0.00000     0.84363    0.00000     0.84363
      H   26    0.15086      0.00000     0.84914    0.00000     0.84914
 =======================================================================
   * Total *    1.00000     42.00000   104.00000    0.00000   146.00000

 Normal termination of Gaussian 16 at Wed Jan 12 18:27:50 2022.
