 Gaussian 16, Revision C.01,
 Gaussian 16:  ES64L-G16RevC.01  3-Jul-2019

 ---------------------
 #p pm6 pop=npa nosymm
 ---------------------

 --------------
 Atom number=18
 --------------
 Symbolic Z-matrix:
 Charge =  4 Multiplicity = 1

                          Input orientation:
 ---------------------------------------------------------------------
 Center     Atomic      Atomic             Coordinates (Angstroms)
 Number     Number       Type             X           Y           Z
 ---------------------------------------------------------------------
      1          6           0        3.910969    0.258113    8.229017
      2          8           0        4.063989    1.477972    8.227979
      3          7           0        4.363984   -0.526864    9.189034
      4          6           0        5.067025    0.020007   10.325977
      5          6           0        4.271059    0.816811   11.295999
      6          8           0        4.358940    2.032989   11.366958
      7          7           0        3.491947    0.104053   12.072915
      8          6           0        2.584883    0.676960   13.085005
      9          6           0        3.005978    0.046974   14.361121
     10          8           0        2.957969   -1.168989   14.515003
     11          7           0        3.480959    0.887010   15.261993
     12          6           0        4.163013    0.391930   16.441897
     13          6           0        1.127036    0.329937   12.826890
     14          6           0        0.248047    0.674946   14.037915
     15          6           0        0.673956    1.046981   11.596007
     16          1           0        3.398867   -0.230630    7.426657
     17          1           0        3.640292    0.797242   17.282959
     18          1           0        5.204081    0.636424   16.405837
 ---------------------------------------------------------------------

 SCF Done:  E(RPM6) =   2.91123256257     A.U. after   33 cycles

 Alpha  occ. eigenvalues --   -1.86797  -1.83753  -1.77631  -1.76981  -1.74533
 Alpha  occ. eigenvalues --   -1.68537  -1.65244  -1.57474  -1.53890  -1.46754
 Alpha  occ. eigenvalues --   -1.41236  -1.37277  -1.31719  -1.27977  -1.25356
 Alpha  occ. eigenvalues --   -1.23183  -1.22301  -1.20845  -1.19126  -1.17888
 Alpha  occ. eigenvalues --   -1.14585  -1.13831  -1.12954  -1.10793  -1.08829
 Alpha  occ. eigenvalues --   -1.08182  -1.05214  -1.03703  -1.01593  -1.00936
 Alpha  occ. eigenvalues --   -0.98486  -0.97637  -0.96788  -0.90777
 Alpha virt. eigenvalues --   -0.81160  -0.70857  -0.68112  -0.67179  -0.65037
 Alpha virt. eigenvalues --   -0.63604  -0.63067  -0.62654  -0.61626  -0.60013
 Alpha virt. eigenvalues --   -0.58913  -0.56607  -0.55551  -0.53801  -0.52363

 Mulliken charges:
               1
     1  C    0.317961
     2  O   -0.023270
     3  N   -0.105003
     4  C    0.599989
     5  C    0.339041
     6  O   -0.061904
     7  N   -0.259987
     8  C    0.451603
     9  C    0.226488
    10  O    0.104125
    11  N   -0.131674
    12  C    0.464620
    13  C   -1.044694
    14  C    1.159252
    15  C    1.104870
    16  H    0.304050
    17  H    0.278829
    18  H    0.275705
 Sum of Mulliken charges =   4.00000

 Dipole moment (field-independent basis, Debye):
    X=             53.8750    Y=             10.3420    Z=            246.1528  Tot=            252.1917
 N-N= 4.643074421665D+02 E-N=-6.899862385171D+02  KE=-1.443499777385D+02
 Leave Link  601 at Wed Jan 12 18:27:45 2022, MaxMem=   402653184 cpu:               1.9 elap:               0.5
 (Enter /work/01114/jfonner/frontera/gaussian/16rC.01/g16/l607.exe)
 ******************************Gaussian NBO Version 3.1******************************
             N A T U R A L   A T O M I C   O R B I T A L   A N D
          N A T U R A L   B O N D   O R B I T A L   A N A L Y S I S
 ******************************Gaussian NBO Version 3.1******************************
       /RESON  / : Allow strongly delocalized NBO set

 Analyzing the SCF density

 Summary of Natural Population Analysis:

                                       Natural Population
                Natural  -----------------------------------------------
    Atom  No    Charge         Core      Valence    Rydberg      Total
 -----------------------------------------------------------------------
      C    1    0.31796      2.00000     3.68204    0.00000     5.68204
      O    2   -0.02327      2.00000     6.02327    0.00000     8.02327
      N    3   -0.10500      2.00000     5.10500    0.00000     7.10500
      C    4    0.59999      2.00000     3.40001    0.00000     5.40001
      C    5    0.33904      2.00000     3.66096    0.00000     5.66096
      O    6   -0.06190      2.00000     6.06190    0.00000     8.06190
      N    7   -0.25999      2.00000     5.25999    0.00000     7.25999
      C    8    0.45160      2.00000     3.54840    0.00000     5.54840
      C    9    0.22649      2.00000     3.77351    0.00000     5.77351
      O   10    0.10413      2.00000     5.89587    0.00000     7.89587
      N   11   -0.13167      2.00000     5.13167    0.00000     7.13167
      C   12    0.46462      2.00000     3.53538    0.00000     5.53538
      C   13   -1.04469      2.00000     5.04469    0.00000     7.04469
      C   14    1.15925      2.00000     2.84075    0.00000     4.84075
      C   15    1.10487      2.00000     2.89513    0.00000     4.89513
      H   16    0.30405      0.00000     0.69595    0.00000     0.69595
      H   17    0.27883      0.00000     0.72117    0.00000     0.72117
      H   18    0.27571      0.00000     0.72429    0.00000     0.72429
 =======================================================================
   * Total *    4.00000     30.00000    68.00000    0.00000    98.00000

 Normal termination of Gaussian 16 at Wed Jan 12 18:27:49 2022.
