 Gaussian 16, Revision C.01,
 Gaussian 16:  ES64L-G16RevC.01  3-Jul-2019

 ---------------------
 #p pm6 pop=npa nosymm
 ---------------------

 --------------
 Atom number=17
 --------------
 Symbolic Z-matrix:
 Charge =  1 Multiplicity = 1

                          Input orientation:
 ---------------------------------------------------------------------
 Center     Atomic      Atomic             Coordinates (Angstroms)
 Number     Number       Type             X           Y           Z
 ---------------------------------------------------------------------
      1          6           0        0.840088   -0.854084    6.792008
      2          8           0        1.027000   -2.021994    6.720045
      3          7           0        1.810094    0.001994    7.023026
      4          6           0        3.191019   -0.428997    7.101001
      5          6           0        3.910969    0.258113    8.229017
      6          8           0        4.063989    1.477972    8.227979
      7          7           0        4.363984   -0.526864    9.189034
      8          6           0        5.067025    0.020007   10.325977
      9          6           0        3.871003   -0.102977    5.748034
     10          6           0        4.271059    0.816811   11.295999
     11          8           0        4.358940    2.032989   11.366958
     12          7           0        3.491947    0.104053   12.072915
     13          6           0        2.584883    0.676960   13.085005
     14          1           0       -0.155321   -0.471276    6.705295
     15          1           0        4.860726   -0.491454    5.627890
     16          1           0        2.888474    0.222768   14.005028
     17          1           0        1.559072    0.432778   12.903383
 ---------------------------------------------------------------------

 SCF Done:  E(RPM6) =  0.805324166074     A.U. after   24 cycles

 Alpha  occ. eigenvalues --   -1.43414  -1.41627  -1.33532  -1.33281  -1.32136
 Alpha  occ. eigenvalues --   -1.23447  -1.19416  -1.13606  -1.06770  -0.98631
 Alpha  occ. eigenvalues --   -0.95677  -0.87676  -0.84147  -0.81893  -0.80958
 Alpha  occ. eigenvalues --   -0.80731  -0.77735  -0.75887  -0.74061  -0.71409
 Alpha  occ. eigenvalues --   -0.69916  -0.68469  -0.66580  -0.65159  -0.63504
 Alpha  occ. eigenvalues --   -0.61232  -0.60576  -0.57643  -0.57554  -0.52853
 Alpha  occ. eigenvalues --   -0.49821  -0.48490
 Alpha virt. eigenvalues --   -0.33052  -0.27626  -0.27035  -0.22595  -0.19074
 Alpha virt. eigenvalues --   -0.18092  -0.17225  -0.14471  -0.13344  -0.11251
 Alpha virt. eigenvalues --   -0.07656  -0.06726  -0.06448  -0.06008  -0.04120

 Mulliken charges:
               1
     1  C    0.463441
     2  O   -0.496415
     3  N   -0.420211
     4  C    0.087232
     5  C    0.442231
     6  O   -0.312769
     7  N   -0.300467
     8  C    0.576637
     9  C    0.339264
    10  C    0.424491
    11  O   -0.291147
    12  N   -0.443463
    13  C    0.379610
    14  H    0.147415
    15  H    0.053459
    16  H    0.172522
    17  H    0.178171
 Sum of Mulliken charges =   1.00000

 Dipole moment (field-independent basis, Debye):
    X=             19.1453    Y=              1.2438    Z=             52.4305  Tot=             55.8305
 N-N= 3.940505446180D+02 E-N=-5.942547676944D+02  KE=-1.366790075872D+02
 Leave Link  601 at Wed Jan 12 18:27:41 2022, MaxMem=   402653184 cpu:               1.9 elap:               0.5
 (Enter /work/01114/jfonner/frontera/gaussian/16rC.01/g16/l607.exe)
 ******************************Gaussian NBO Version 3.1******************************
             N A T U R A L   A T O M I C   O R B I T A L   A N D
          N A T U R A L   B O N D   O R B I T A L   A N A L Y S I S
 ******************************Gaussian NBO Version 3.1******************************
       /RESON  / : Allow strongly delocalized NBO set

 Analyzing the SCF density

 Summary of Natural Population Analysis:

                                       Natural Population
                Natural  -----------------------------------------------
    Atom  No    Charge         Core      Valence    Rydberg      Total
 -----------------------------------------------------------------------
      C    1    0.46344      2.00000     3.53656    0.00000     5.53656
      O    2   -0.49641      2.00000     6.49641    0.00000     8.49641
      N    3   -0.42021      2.00000     5.42021    0.00000     7.42021
      C    4    0.08723      2.00000     3.91277    0.00000     5.91277
      C    5    0.44223      2.00000     3.55777    0.00000     5.55777
      O    6   -0.31277      2.00000     6.31277    0.00000     8.31277
      N    7   -0.30047      2.00000     5.30047    0.00000     7.30047
      C    8    0.57664      2.00000     3.42336    0.00000     5.42336
      C    9    0.33926      2.00000     3.66074    0.00000     5.66074
      C   10    0.42449      2.00000     3.57551    0.00000     5.57551
      O   11   -0.29115      2.00000     6.29115    0.00000     8.29115
      N   12   -0.44346      2.00000     5.44346    0.00000     7.44346
      C   13    0.37961      2.00000     3.62039    0.00000     5.62039
      H   14    0.14741      0.00000     0.85259    0.00000     0.85259
      H   15    0.05346      0.00000     0.94654    0.00000     0.94654
      H   16    0.17252      0.00000     0.82748    0.00000     0.82748
      H   17    0.17817      0.00000     0.82183    0.00000     0.82183
 =======================================================================
   * Total *    1.00000     26.00000    64.00000    0.00000    90.00000

 Normal termination of Gaussian 16 at Wed Jan 12 18:27:46 2022.
